 Gaussian 16, Revision A.03,
 Gaussian 16:  EM64L-G16RevA.03 25-Dec-2016

 -----------------------------------------------------
 #T Opt Freq=NoRaman Symmetry=Follow B3LYP/aug-cc-pVTZ
 -----------------------------------------------------
 --------------------
 Benzene Optimization
 --------------------
 Symbolic Z-matrix:
 Charge =  0 Multiplicity = 1

 SCF Done:  E(RB3LYP) =  -231.226882018     A.U. after   10 cycles
 SCF Done:  E(RB3LYP) =  -231.538510421     A.U. after    9 cycles
 SCF Done:  E(RB3LYP) =  -231.962153114     A.U. after   10 cycles
 SCF Done:  E(RB3LYP) =  -232.271237482     A.U. after   10 cycles
 SCF Done:  E(RB3LYP) =  -232.306147446     A.U. after    9 cycles
 SCF Done:  E(RB3LYP) =  -232.324992491     A.U. after    8 cycles
 SCF Done:  E(RB3LYP) =  -232.333795156     A.U. after    9 cycles
 SCF Done:  E(RB3LYP) =  -232.334990365     A.U. after    8 cycles
 SCF Done:  E(RB3LYP) =  -232.335500858     A.U. after    8 cycles
 SCF Done:  E(RB3LYP) =  -232.335553354     A.U. after    7 cycles
 SCF Done:  E(RB3LYP) =  -232.335562328     A.U. after    6 cycles
 SCF Done:  E(RB3LYP) =  -232.335565820     A.U. after    6 cycles
 SCF Done:  E(RB3LYP) =  -232.335568099     A.U. after    6 cycles
 Optimization completed.
    -- Stationary point found.
 Normal termination of Gaussian 16 at Sun Jul 17 19:21:05 2022.

 ----------------------------------------------------------------------
 #T Geom=AllCheck Guess=TCheck SCRF=Check GenChk RB3LYP/Aug-CC-pVTZ Fre
 q
 ----------------------------------------------------------------------
 Structure from the checkpoint file:  "optimization-gaussian.chk"
 --------------------
 Benzene Optimization
 --------------------
 Charge =  0 Multiplicity = 1

                         Standard orientation:
 ---------------------------------------------------------------------
 Center     Atomic      Atomic             Coordinates (Angstroms)
 Number     Number       Type             X           Y           Z
 ---------------------------------------------------------------------
      1          1           0        0.000000    2.472664    0.000000
      2          1           0        2.141703    1.235978    0.000000
      3          6           0        0.000000    1.390833    0.000000
      4          1           0       -2.141703    1.235978    0.000000
      5          6           0        1.204663    0.695343    0.000000
      6          6           0       -1.204663    0.695343    0.000000
      7          6           0        1.204663   -0.695343    0.000000
      8          6           0       -1.204663   -0.695343    0.000000
      9          1           0        2.141703   -1.235978    0.000000
     10          6           0       -0.000000   -1.390833    0.000000
     11          1           0       -2.141703   -1.235978    0.000000
     12          1           0       -0.000000   -2.472664    0.000000
 ---------------------------------------------------------------------

 SCF Done:  E(RB3LYP) =  -232.335568099     A.U. after    1 cycles

 The electronic state is 1-AG.
 Alpha  occ. eigenvalues --  -10.18066 -10.18038 -10.18036 -10.17972 -10.17970
 Alpha  occ. eigenvalues --  -10.17946  -0.86009  -0.75121  -0.75109  -0.60773
 Alpha  occ. eigenvalues --   -0.60763  -0.52963  -0.46532  -0.45269  -0.42701
 Alpha  occ. eigenvalues --   -0.42692  -0.37442  -0.34953  -0.34953  -0.26059
 Alpha  occ. eigenvalues --   -0.26050
 Alpha virt. eigenvalues --   -0.01755  -0.01747  -0.01031   0.00570   0.00571
 Alpha virt. eigenvalues --    0.02553   0.02554   0.04460   0.04872   0.05441
 Alpha virt. eigenvalues --    0.06710   0.06710   0.07752   0.07753   0.08050

 Mulliken charges:
               1
     1  H    0.392656
     2  H    0.392782
     3  C   -0.393169
     4  H    0.392782
     5  C   -0.392525
     6  C   -0.392525
     7  C   -0.392525
     8  C   -0.392525
     9  H    0.392782
    10  C   -0.393169
    11  H    0.392782
    12  H    0.392656
 Sum of Mulliken charges =   0.00000

 Dipole moment (field-independent basis, Debye):
    X=             -0.0000    Y=             -0.0000    Z=              0.0000  Tot=              0.0000
  Exact polarizability:  81.608   0.000  81.603  -0.000   0.000  44.771
 Approx polarizability: 133.163   0.000 133.154  -0.000  -0.000  67.026
 Calling FoFJK, ICntrl=    100127 FMM=F ISym2X=1 I1Cent= 0 IOpClX= 0 NMat=1 NMatS=1 NMatT=0.
 Full mass-weighted force constant matrix:
 Low frequencies ---  -16.0095   -9.3869   -7.2428   -0.0012   -0.0006    0.0003
 Low frequencies ---  412.1126  412.4551  623.0941
 Diagonal vibrational polarizability:
        0.2881225       0.2891841       6.1739183
 Harmonic frequencies (cm**-1), IR intensities (KM/Mole), Raman scattering
 activities (A**4/AMU), depolarization ratios for plane and unpolarized

                      1                      2                      3
                     AU                     AU                     AG
 Frequencies --    412.1126               412.4551               623.0940
 Red. masses --      2.8209                 2.8205                 6.0691
 Frc consts  --      0.2823                 0.2827                 1.3883
 IR Inten    --      0.0000                 0.0000                 0.0000

                      4                      5                      6
                     AG                     AU                     BG
 Frequencies --    623.1983               692.7677               721.3178
 Red. masses --      6.0706                 1.0848                 3.6143
 Frc consts  --      1.3891                 0.3067                 1.1080
 IR Inten    --      0.0000               110.1039                 0.0000

                      7                      8                      9
                     BG                     BG                     AU
 Frequencies --    870.5589               870.5596               996.2169
 Red. masses --      1.2475                 1.2475                 1.3869
 Frc consts  --      0.5570                 0.5571                 0.8110
 IR Inten    --      0.0000                 0.0000                 0.0000

                     10                     11                     12
                     AU                     AG                     BG
 Frequencies --    996.3661              1014.1220              1022.8451
 Red. masses --      1.3868                 6.0459                 1.2517
 Frc consts  --      0.8112                 3.6634                 0.7716
 IR Inten    --      0.0000                 0.0000                 0.0000

                     13                     14                     15
                     BU                     BU                     BU
 Frequencies --   1030.5715              1060.3475              1060.9117
 Red. masses --      6.5306                 1.7162                 1.7140
 Frc consts  --      4.0866                 1.1369                 1.1367
 IR Inten    --      0.0001                 5.1437                 5.1291

                     16                     17                     18
                     BU                     AG                     AG
 Frequencies --   1173.2611              1197.5433              1197.8420
 Red. masses --      1.1061                 1.1412                 1.1405
 Frc consts  --      0.8971                 0.9643                 0.9642
 IR Inten    --      0.0000                 0.0000                 0.0000

                     19                     20                     21
                     BU                     AG                     BU
 Frequencies --   1334.7706              1387.8694              1515.7867
 Red. masses --      5.8300                 1.2475                 1.9959
 Frc consts  --      6.1197                 1.4158                 2.7019
 IR Inten    --      0.0001                 0.0000                 6.3496

                     22                     23                     24
                     BU                     AG                     AG
 Frequencies --   1515.9915              1633.6346              1634.3995
 Red. masses --      1.9988                 5.2484                 5.2618
 Frc consts  --      2.7065                 8.2525                 8.2813
 IR Inten    --      6.3085                 0.0000                 0.0000

                     25                     26                     27
                     BU                     AG                     AG
 Frequencies --   3157.4414              3167.2168              3167.3232
 Red. masses --      1.0841                 1.0875                 1.0874
 Frc consts  --      6.3676                 6.4272                 6.4275
 IR Inten    --      0.0003                 0.0000                 0.0000

                     28                     29                     30
                     BU                     BU                     AG
 Frequencies --   3182.5940              3182.7508              3192.6150
 Red. masses --      1.0945                 1.0945                 1.0987
 Frc consts  --      6.5317                 6.5325                 6.5981
 IR Inten    --     34.5127                34.4856                 0.0000

 Optimization completed.
    -- Stationary point found.
 Normal termination of Gaussian 16 at Sun Jul 17 19:26:29 2022.
